Program Version,EnergyPlus, Version 23.2.0-7636e6b3e9, YMD=2025.11.30 19:55
1,5,Environment Title[],Latitude[deg],Longitude[deg],Time Zone[],Elevation[m]
2,8,Day of Simulation[],Month[],Day of Month[],DST Indicator[1=yes 0=no],Hour[],StartMinute[],EndMinute[],DayType
3,5,Cumulative Day of Simulation[],Month[],Day of Month[],DST Indicator[1=yes 0=no],DayType  ! When Daily Meters Requested
4,2,Cumulative Days of Simulation[],Month[]  ! When Monthly Meters Requested
5,1,Cumulative Days of Simulation[] ! When Run Period Meters Requested
6,1,Calendar Year of Simulation[] ! When Annual Meters Requested
15,9,Electricity:Facility [J] !Monthly [Value,Min,Day,Hour,Minute,Max,Day,Hour,Minute]
27,9,Electricity:Building [J] !Monthly [Value,Min,Day,Hour,Minute,Max,Day,Hour,Minute]
63,9,InteriorLights:Electricity [J] !Monthly [Value,Min,Day,Hour,Minute,Max,Day,Hour,Minute]
1322,9,Electricity:HVAC [J] !Monthly [Value,Min,Day,Hour,Minute,Max,Day,Hour,Minute]
982,9,Electricity:Plant [J] !Monthly [Value,Min,Day,Hour,Minute,Max,Day,Hour,Minute]
17,11,Electricity:Facility [J] !RunPeriod [Value,Min,Month,Day,Hour,Minute,Max,Month,Day,Hour,Minute]
29,11,Electricity:Building [J] !RunPeriod [Value,Min,Month,Day,Hour,Minute,Max,Month,Day,Hour,Minute]
65,11,InteriorLights:Electricity [J] !RunPeriod [Value,Min,Month,Day,Hour,Minute,Max,Month,Day,Hour,Minute]
1324,11,Electricity:HVAC [J] !RunPeriod [Value,Min,Month,Day,Hour,Minute,Max,Month,Day,Hour,Minute]
984,11,Electricity:Plant [J] !RunPeriod [Value,Min,Month,Day,Hour,Minute,Max,Month,Day,Hour,Minute]
1749,9,MYGENERALLIGHTS [J] !Monthly [Value,Min,Day,Hour,Minute,Max,Day,Hour,Minute]
1751,11,MYGENERALLIGHTS [J] !RunPeriod [Value,Min,Month,Day,Hour,Minute,Max,Month,Day,Hour,Minute]
1761,9,MYBUILDINGELECTRIC [J] !Monthly [Value,Min,Day,Hour,Minute,Max,Day,Hour,Minute]
1763,11,MYBUILDINGELECTRIC [J] !RunPeriod [Value,Min,Month,Day,Hour,Minute,Max,Month,Day,Hour,Minute]
1773,9,MYBUILDINGOTHER [J] !Monthly [Value,Min,Day,Hour,Minute,Max,Day,Hour,Minute]
1775,11,MYBUILDINGOTHER [J] !RunPeriod [Value,Min,Month,Day,Hour,Minute,Max,Month,Day,Hour,Minute]
End of Data Dictionary
1,RUN PERIOD 1,  31.23, 121.47,   8.00,   4.00
4,31, 1
15,13317896296.628258,924344.9946761875, 4,22,30,13026440.821309276,17,11,15
27,11223810000.0,427500.0, 1, 1,15,10800000.0, 1,11,15
63,7121250000.0,337500.0, 1, 1,15,6750000.0, 1,11,15
982,669344988.2491795,22993.824675123742, 4,22,30,3550693.3101616474,14, 7,30
1322,1424741308.3790147,473851.1700010638, 1, 1,15,649038.679543709,17,10,45
1749,7121250000.0,337500.0, 1, 1,15,6750000.0, 1,11,15
1761,11223810000.0,427500.0, 1, 1,15,10800000.0, 1,11,15
1773,4102560000.0,90000.0, 1, 1,15,4050000.0, 1,10,15
4,59, 2
15,11948259455.76799,99999999999999.0, 4,22,30,14550516.339540284,11, 7,30
27,9883800000.0,99999999999999.0, 1, 1,15,-99999999999999.0, 1,11,15
63,6226200000.0,99999999999999.0, 1, 1,15,-99999999999999.0, 1,11,15
982,774446431.7959805,99999999999999.0, 4,22,30,13649165.16953922,11, 7,30
1322,1290013023.9719877,473851.1700010637, 6, 7,60,733351.8422345519,14,10,30
1749,6226200000.0,99999999999999.0, 1, 1,15,-99999999999999.0, 1,11,15
1761,9883800000.0,99999999999999.0, 1, 1,15,-99999999999999.0, 1,11,15
1773,3657600000.0,99999999999999.0, 1, 1,15,-99999999999999.0, 1,10,15
4,90, 3
15,13061610107.618807,924344.9946468238, 7,22,30,15111646.967452709,29,11,15
27,10568070000.0,99999999999999.0, 1, 1,15,-99999999999999.0, 1,11,15
63,6589350000.0,99999999999999.0, 1, 1,15,-99999999999999.0, 1,11,15
982,1037640403.361191,22993.82464576016, 7,22,30,-99999999999999.0,11, 7,30
1322,1455899704.2575805,99999999999999.0, 6, 7,60,880933.5298571622,29,10,60
1749,6589350000.0,99999999999999.0, 1, 1,15,-99999999999999.0, 1,11,15
1761,10568070000.0,99999999999999.0, 1, 1,15,-99999999999999.0, 1,11,15
1773,3978720000.0,99999999999999.0, 1, 1,15,-99999999999999.0, 1,10,15
4,120, 4
15,13469904086.341991,450564.5646320117,19,22,15,-99999999999999.0,29,11,15
27,10777140000.0,99999999999999.0, 1, 1,15,-99999999999999.0, 1,11,15
63,6822900000.0,99999999999999.0, 1, 1,15,-99999999999999.0, 1,11,15
982,2077220478.6063304,99999999999999.0, 7,22,30,-99999999999999.0,11, 7,30
1322,615543607.7356333,0.0, 1, 1,15,-99999999999999.0,29,10,60
1749,6822900000.0,99999999999999.0, 1, 1,15,-99999999999999.0, 1,11,15
1761,10777140000.0,99999999999999.0, 1, 1,15,-99999999999999.0, 1,11,15
1773,3954240000.0,99999999999999.0, 1, 1,15,-99999999999999.0, 1,10,15
4,151, 5
15,14907779211.252617,99999999999999.0,19,22,15,15670164.048543379,23,10,15
27,11223810000.0,99999999999999.0, 1, 1,15,-99999999999999.0, 1,11,15
63,7121250000.0,99999999999999.0, 1, 1,15,-99999999999999.0, 1,11,15
982,3009866781.2845626,99999999999999.0, 7,22,30,-99999999999999.0,11, 7,30
1322,674102429.9680445,99999999999999.0, 1, 1,15,-99999999999999.0,29,10,60
1749,7121250000.0,99999999999999.0, 1, 1,15,-99999999999999.0, 1,11,15
1761,11223810000.0,99999999999999.0, 1, 1,15,-99999999999999.0, 1,11,15
1773,4102560000.0,99999999999999.0, 1, 1,15,-99999999999999.0, 1,10,15
4,181, 6
15,13801404942.037312,99999999999999.0,19,22,15,16033390.776162038, 3,11,15
27,10121400000.0,99999999999999.0, 1, 1,15,-99999999999999.0, 1,11,15
63,6291000000.0,99999999999999.0, 1, 1,15,-99999999999999.0, 1,11,15
982,3092681630.041564,99999999999999.0, 7,22,30,-99999999999999.0,11, 7,30
1322,587323311.9957601,99999999999999.0, 1, 1,15,-99999999999999.0,29,10,60
1749,6291000000.0,99999999999999.0, 1, 1,15,-99999999999999.0, 1,11,15
1761,10121400000.0,99999999999999.0, 1, 1,15,-99999999999999.0, 1,11,15
1773,3830400000.0,99999999999999.0, 1, 1,15,-99999999999999.0, 1,10,15
4,212, 7
15,17279790398.39403,99999999999999.0,19,22,15,18233568.942505993, 4,11,15
27,11223810000.0,99999999999999.0, 1, 1,15,-99999999999999.0, 1,11,15
63,7121250000.0,99999999999999.0, 1, 1,15,-99999999999999.0, 1,11,15
982,5327244735.102822,99999999999999.0, 7,22,30,-99999999999999.0,11, 7,30
1322,728735663.2912419,99999999999999.0, 1, 1,15,-99999999999999.0,29,10,60
1749,7121250000.0,99999999999999.0, 1, 1,15,-99999999999999.0, 1,11,15
1761,11223810000.0,99999999999999.0, 1, 1,15,-99999999999999.0, 1,11,15
1773,4102560000.0,99999999999999.0, 1, 1,15,-99999999999999.0, 1,10,15
4,243, 8
15,16657020041.790545,99999999999999.0,19,22,15,18409559.311848074, 1,11,15
27,10895940000.0,99999999999999.0, 1, 1,15,-99999999999999.0, 1,11,15
63,6855300000.0,99999999999999.0, 1, 1,15,-99999999999999.0, 1,11,15
982,5064295493.033387,99999999999999.0, 7,22,30,-99999999999999.0,11, 7,30
1322,696784548.757192,99999999999999.0, 1, 1,15,-99999999999999.0,29,10,60
1749,6855300000.0,99999999999999.0, 1, 1,15,-99999999999999.0, 1,11,15
1761,10895940000.0,99999999999999.0, 1, 1,15,-99999999999999.0, 1,11,15
1773,4040640000.0,99999999999999.0, 1, 1,15,-99999999999999.0, 1,10,15
4,273, 9
15,15117381831.801176,99999999999999.0,19,22,15,-99999999999999.0, 1,11,15
27,10449270000.0,99999999999999.0, 1, 1,15,-99999999999999.0, 1,11,15
63,6556950000.0,99999999999999.0, 1, 1,15,-99999999999999.0, 1,11,15
982,4034046243.241581,99999999999999.0, 7,22,30,-99999999999999.0,11, 7,30
1322,634065588.5596199,99999999999999.0, 1, 1,15,-99999999999999.0,29,10,60
1749,6556950000.0,99999999999999.0, 1, 1,15,-99999999999999.0, 1,11,15
1761,10449270000.0,99999999999999.0, 1, 1,15,-99999999999999.0, 1,11,15
1773,3892320000.0,99999999999999.0, 1, 1,15,-99999999999999.0, 1,10,15
4,304,10
15,15396457661.423927,99999999999999.0,19,22,15,-99999999999999.0, 1,11,15
27,11223810000.0,99999999999999.0, 1, 1,15,-99999999999999.0, 1,11,15
63,7121250000.0,99999999999999.0, 1, 1,15,-99999999999999.0, 1,11,15
982,2641745285.9386516,99999999999999.0, 7,22,30,-99999999999999.0,11, 7,30
1322,1530902375.4852386,99999999999999.0, 1, 1,15,-99999999999999.0,29,10,60
1749,7121250000.0,99999999999999.0, 1, 1,15,-99999999999999.0, 1,11,15
1761,11223810000.0,99999999999999.0, 1, 1,15,-99999999999999.0, 1,11,15
1773,4102560000.0,99999999999999.0, 1, 1,15,-99999999999999.0, 1,10,15
4,334,11
15,13398164487.126999,99999999999999.0,19,22,15,-99999999999999.0, 1,11,15
27,10449270000.0,99999999999999.0, 1, 1,15,-99999999999999.0, 1,11,15
63,6556950000.0,99999999999999.0, 1, 1,15,-99999999999999.0, 1,11,15
982,1527380237.6508453,99999999999999.0, 7,22,30,-99999999999999.0,11, 7,30
1322,1421514249.4761012,99999999999999.0, 1, 1,15,-99999999999999.0,29,10,60
1749,6556950000.0,99999999999999.0, 1, 1,15,-99999999999999.0, 1,11,15
1761,10449270000.0,99999999999999.0, 1, 1,15,-99999999999999.0, 1,11,15
1773,3892320000.0,99999999999999.0, 1, 1,15,-99999999999999.0, 1,10,15
4,365, 1
15,12959306419.007292,99999999999999.0,19,22,15,-99999999999999.0, 1,11,15
27,10895940000.0,99999999999999.0, 1, 1,15,-99999999999999.0, 1,11,15
63,6855300000.0,99999999999999.0, 1, 1,15,-99999999999999.0, 1,11,15
982,636528778.8077035,22993.82404236128,25,22,30,-99999999999999.0,11, 7,30
1322,1426837640.1995454,99999999999999.0, 1, 1,15,-99999999999999.0,29,10,60
1749,6855300000.0,99999999999999.0, 1, 1,15,-99999999999999.0, 1,11,15
1761,10895940000.0,99999999999999.0, 1, 1,15,-99999999999999.0, 1,11,15
1773,4040640000.0,99999999999999.0, 1, 1,15,-99999999999999.0, 1,10,15
5,365
17,171314974939.1924,450564.5646320117, 4,19,22,15,18409559.311848074, 8, 1,11,15
29,128936070000.0,427500.0, 1, 1, 1,15,10800000.0, 1, 1,11,15
65,81238950000.0,337500.0, 1, 1, 1,15,6750000.0, 1, 1,11,15
984,29892441487.113724,22993.82404236128,12,25,22,30,13649165.16953922, 2,11, 7,30
1324,12486463452.082178,0.0, 4, 1, 1,15,880933.5298571622, 3,29,10,60
1751,81238950000.0,337500.0, 1, 1, 1,15,6750000.0, 1, 1,11,15
1763,128936070000.0,427500.0, 1, 1, 1,15,10800000.0, 1, 1,11,15
1775,47697120000.0,90000.0, 1, 1, 1,15,4050000.0, 1, 1,10,15
End of Data
 Number of Records Written=         104
